238
	Energy:    4056.3520967
O          5.94295       -3.56490        4.46202
O          5.92755       -2.27073       -4.34379
O          8.88394       -1.34630       -4.47595
O          5.99849       -3.59649       -1.61488
O          7.80531        2.54014       -0.37373
O         11.82016       -8.43738        0.75051
O          5.67959        3.26068        3.21904
O         10.54847       -5.79207        1.55189
O         10.48644       -7.38812       -2.16103
O         13.86344        3.76980       -2.56804
O          8.21460        4.77983        2.02816
O          5.78718        5.11328       -1.60955
O          4.30009       -9.57846        0.18930
O         10.33431        2.41042       -2.38543
O         14.63789       -7.09297        0.69702
O          4.14232       -2.49125        0.05647
O         15.71222       -0.26825       -2.57334
O          0.72588       -1.98227       -0.44847
O         15.40548       -4.35506        0.03992
O          5.70920       -2.54762        1.63584
O         10.71151        7.61278        1.83659
O          0.99913        2.20541       -0.12133
O          0.64059        6.28295        0.30859
O          3.80738        9.81086        0.74519
O         11.44528        2.95103        4.12754
O          0.30924       -5.53007        0.68771
O          7.73436       -6.72914        1.36285
O          4.60354        0.37750        1.03943
O          8.65004        9.84169        0.79733
O         13.33432        7.42335        0.28365
O         15.38535        0.65802       -1.69586
N          6.53160       -6.71897       -0.88665
N          5.02690        0.34230       -1.16065
N         20.70358        2.17805        0.24392
C          9.06348       -2.66951        4.15964
C          7.93119       -0.64583       -0.63296
C          8.82780       -4.67320       -3.60663
C          6.35352       -3.40186       -0.45767
C          8.02710       -0.54827        0.56357
C         12.61530       -3.72038        3.00658
C          4.83209       -6.33736        2.56450
C          2.66688       -3.27006        3.24939
C          6.16788        1.01160       -4.20201
C          5.89043       -0.21159        4.01121
C          7.73310       -3.86600        0.00000
C          7.73310       -4.86600        0.00000
C          7.97136        3.93749       -3.96798
C         11.13538        5.52732       -3.57016
C          8.63940        1.80377        3.34781
C          3.71602       -7.37102       -2.90592
C         11.54374       -2.26364       -2.77608
C         10.01967        1.06498       -2.19010
C         12.85257       -5.27133       -1.83170
C         13.09485        0.71235       -3.98256
C          5.39271       -2.77583        0.47883
C          4.89198        4.46122       -2.45553
C          2.39185       -4.93226       -0.32040
C         13.42920       -2.00000        0.00000
C         10.77093        4.63104        0.24041
C          2.97623        4.47456        1.89605
C         13.42920       -1.00000        0.00000
C          3.22053        7.31023       -1.46652
C          6.21544        9.06692       -1.57783
C          5.76461        6.77990        2.11731
C         10.92519       -0.68122        2.17388
C          1.53620       -6.04553        0.25358
C          7.73310       -6.86600        0.00000
C          4.76900        1.00000        0.00000
C          8.77467        6.88343       -1.17172
C          7.73310       -7.86600        0.00000
C          4.76900        2.00000        0.00000
C         12.99200        2.15568        0.35789
C         13.15864        1.64120        1.77150
C         14.50865        4.06417        3.44072
C         15.54074        4.00755        2.35592
C         16.58923        1.28759       -1.37574
C         17.02511        0.95747        0.05603
C         15.36443        4.65554        1.19641
C         17.27164       -0.53752        0.25155
C         16.36468        4.62936        0.07709
C         18.35877       -1.06502       -0.69920
C         17.74351        5.12501        0.52803
C         18.38758       -2.58671       -0.70494
C         18.73644        5.21139       -0.65159
C         18.99335       -3.21273        0.55866
C         18.49582        6.42215       -1.58525
C         18.79120       -4.73742        0.61703
C         19.27042        7.69348       -1.16907
C         19.01444       -5.43387       -0.73636
C         19.03072        8.19361        0.26663
C         18.93667       -6.95421       -0.64095
C         20.05333        9.25089        0.68395
C         20.21793       -7.52045       -0.03073
C         20.19679       -9.04394       -0.04200
C         19.91522       10.61599        0.00348
C         21.59188       -9.58140        0.26909
C         21.16845       11.43112        0.33921
C         21.60449      -11.10427        0.19902
C         21.09495       12.88154       -0.13218
C         23.03639      -11.63145        0.27553
C         23.04186      -13.15538        0.17407
C         22.46022       13.54672        0.08485
C         24.47133      -13.69494        0.12839
C         22.42363       15.04176       -0.22924
C         24.46076      -15.22222        0.03250
C         23.81528       15.65247       -0.08551
C         25.87771      -15.77562       -0.05037
H          9.15435       -2.93166        3.08609
H          7.81737       -0.81993       -1.67076
H          9.47070       -4.31547       -2.77715
H          8.08073       -0.55234        1.61906
H         12.02110       -3.57150        2.08220
H          5.22957       -5.51698        1.93238
H          3.24132       -3.84187        2.49286
H          6.87973        0.99294       -3.35131
H          6.24722        0.26608        3.07680
H          7.93267       -3.52646        1.04059
H          8.52710       -3.44718       -0.65649
H          7.73310       -5.48600        0.00000
H          7.83357        3.57041       -2.93028
H         10.62441        5.06864       -2.69992
H          8.83911        1.95945        2.26767
H          3.66934       -7.57899       -1.81762
H         10.97685       -2.12844       -1.83162
H         10.35635        0.71475       -1.19105
H         10.41451        0.43717       -3.01398
H         12.38046       -4.81430       -0.93811
H         12.95337        0.53844       -2.89504
H          5.67556       -6.21275       -0.60207
H          5.07347       -0.67994       -1.22750
H          3.92249        4.32835       -1.93353
H          3.37995       -5.32622       -0.63319
H         13.42920       -2.62000        0.00000
H         10.52858       -5.24901        0.72442
H         10.22788        3.66441        0.23570
H         11.24871        4.77772        1.23002
H          3.20706        4.60733        0.81921
H         13.42920       -0.38000        0.00000
H         10.23709       -6.59558       -1.62210
H          3.73369        6.86217       -0.59044
H          6.14221        8.35541       -0.72953
H          5.85778        6.33391        1.10586
H          7.88527        4.77042        1.09452
H         10.67167        0.27918        1.68196
H         10.72541       -1.51061        1.46527
H          3.89572       -8.75141        0.55407
H          1.37954       -6.84710       -0.50217
H          2.06105       -6.49555        1.12161
H         11.32198        2.46844       -2.33130
H         13.97403       -6.43619        1.02749
H          3.48438       -2.08962        0.64016
H          8.43054        7.05230       -0.13156
H          8.48745        5.86044       -1.48837
H          1.29704       -2.20333       -1.22665
H         15.37051       -4.24509       -0.94330
H          9.95227        7.00555        2.02279
H          1.24392        3.11710       -0.42068
H          6.83100       -8.39222        0.52175
H          7.73310       -8.48600        0.00000
H          8.82759       -8.09208       -0.09804
H          6.08157        3.00490        2.35132
H          4.76900        2.62000        0.00000
H          3.76677        2.16123       -0.47821
H          1.27768        6.85141        0.81043
H         11.94898        1.98576        0.03466
H         13.22841        3.23353        0.30677
H          4.05723        8.93006        1.12169
H         11.19795        3.10654        3.18132
H         14.22867        1.63001        2.05139
H         -0.22182       -5.33716       -0.12889
H          8.10957        9.19535        1.31776
H         13.60391        4.63088        3.12763
H         20.11802        2.53074        1.03359
H         16.43957        3.42760        2.53596
H         13.04300        6.69770       -0.32430
H         16.23374        1.28903        0.75959
H         17.95149        1.52029        0.28630
H         14.46016        5.22996        1.04007
H         16.31528       -1.06731        0.05318
H         17.55473       -0.73255        1.30725
H         16.46627        3.60222       -0.30489
H         15.96262        5.25520       -0.74377
H         18.09881       -0.77407       -1.73702
H         19.35657       -0.63270       -0.46676
H         17.61444        6.08865        1.04720
H         18.14444        4.39332        1.26143
H         19.00865       -2.90634       -1.57032
H         17.35431       -2.94718       -0.87511
H         19.78709        5.25438       -0.28837
H         18.64134        4.26179       -1.22222
H         20.07979       -2.97566        0.55344
H         18.55438       -2.79326        1.48803
H         18.91068        6.16014       -2.58356
H         17.41477        6.61709       -1.73053
H         17.74606       -4.95704        0.92272
H         19.45916       -5.12935        1.41134
H         19.04810        8.50044       -1.89924
H         20.35046        7.44344       -1.26036
H         18.20081       -5.11324       -1.42240
H         19.98621       -5.13804       -1.18891
H         19.25610        7.36204        0.95785
H         17.98394        8.53795        0.41694
H         18.86373       -7.34701       -1.67966
H         18.02621       -7.27283       -0.08642
H         19.97052        9.41477        1.78194
H         21.06242        8.82492        0.48611
H         21.06287       -7.17051       -0.66562
H         20.38253       -7.16131        1.00683
H         19.91950       -9.39635       -1.06071
H         19.44234       -9.41924        0.68421
H         18.99048       11.11183        0.37300
H         19.85490       10.51982       -1.10096
H         22.28896       -9.18249       -0.50233
H         21.93614       -9.24104        1.27067
H         21.33669       11.43801        1.43953
H         22.03357       10.92566       -0.14730
H         21.17143      -11.42784       -0.77383
H         20.98396      -11.51870        1.02389
H         20.30609       13.40365        0.45310
H         20.83634       12.93050       -1.21251
H         23.61528      -11.20768       -0.57611
H         23.51518      -11.31224        1.22742
H         22.51642      -13.46313       -0.75753
H         22.50107      -13.57976        1.04853
H         22.78095       13.41692        1.14255
H         23.20327       13.04367       -0.57466
H         24.98985      -13.27263       -0.76161
H         25.01896      -13.38167        1.04438
H         22.06433       15.20693       -1.26749
H         21.72774       15.54437        0.47777
H         23.95608      -15.64550        0.92831
H         23.90039      -15.53690       -0.87526
H         24.20743       15.49338        0.94198
H         24.51275       15.18633       -0.81467
H         23.76823       16.74275       -0.28572
H         25.83825      -16.88312       -0.11220
H         26.38896      -15.38515       -0.95623
H         26.45764      -15.48616        0.85147
