220
	Energy:    4229.9987352
O          5.92200       -5.04448       -4.12290
O          6.79386       -6.40589        3.79383
O          9.19306       -4.94243        4.78402
O          6.40309       -7.38727       -1.95291
O         12.28783      -11.88774       -1.10512
O          7.00209       -1.41798        1.64568
O         10.42795       -9.55901       -1.48061
O         11.00213      -11.33308        1.86541
O         12.85215        0.07027        4.23423
O          4.55192        1.41565       -0.76786
O          4.98204        4.34296        0.10101
O          2.19899      -14.00810       -0.15383
O          9.53149       -1.98880        1.35430
O         14.75375      -10.11513       -1.03056
O          4.20002       -6.35918       -0.70518
O         12.37732       -2.06394        0.15914
O         15.99672       -7.89141        0.53047
O          0.65674       -5.64313       -0.05391
O          5.39007       -6.40848        1.17325
O         11.18623        4.02268       -0.67541
O         12.16530       -1.03475       -3.22866
O          4.33506       -3.46573        0.94729
O          0.15477       -9.06415       -0.39702
O          7.47814      -10.57031       -1.32198
O         19.03625       -7.50448        0.15825
O         20.41616       -0.83888       -3.43179
N          5.22829      -13.41636       -1.43297
N         13.07954        1.64774       -0.94083
C          8.91508       -6.55299       -3.98002
C          8.74288       -4.56165       -0.28399
C          9.21778       -8.64044        3.44130
C          6.49034       -7.21322       -0.74293
C          8.81057       -4.77789        0.89964
C         12.47967       -7.56873       -2.99106
C          5.77599       -9.32096        2.89447
C          4.04605       -9.35904       -2.65128
C          6.77395       -1.54706       -3.48311
C          7.73310       -7.68300        0.00000
C          6.13879       -3.31138        3.72956
C          7.73310       -8.68300        0.00000
C          6.54452        1.09733        3.09564
C          8.03084        3.46130       -0.26483
C          9.09177        0.90541       -2.52526
C          3.97026      -11.83131        1.50450
C         11.53346       -6.18930        2.70273
C          9.67278       -1.38774        0.10339
C          5.34288       -3.51565       -1.19260
C         13.24434       -9.01819        1.88214
C         12.23571       -3.39730        4.67158
C          5.33710       -6.62178       -0.02806
C         13.42920       -5.81700        0.00000
C          1.96054       -8.56433        1.09175
C         13.42920       -4.81700        0.00000
C         10.24091        1.54062        1.63719
C         11.26230       -4.27690       -2.71539
C          4.76900       -2.81700        0.00000
C          1.32275       -9.58849        0.16893
C          7.73310      -10.68300        0.00000
C          4.76900       -1.81700        0.00000
C         12.47356       -2.36093        1.52001
C          7.73310      -11.68300        0.00000
C         15.77009       -1.45943       -3.53281
C         15.88559       -5.30231        2.31744
C         16.55340       -4.14849        1.59234
C         16.69760       -4.35638        0.06032
C         13.57229        1.27635        0.18396
C         17.63813       -3.30369       -0.51536
C         14.54098        0.13677        0.29337
C         19.08071       -3.68586       -0.19066
C         15.74314        0.47485        1.14882
C         19.98133       -2.47109       -0.02305
C         16.73349        1.42402        0.50177
C         21.38594       -2.98959        0.23905
C         17.36644        0.80440       -0.75644
C         22.37345       -1.88175        0.61288
C         18.59391        1.51824       -1.32485
C         23.79712       -2.44823        0.71861
C         19.72151        1.69150       -0.27846
C         24.34511       -2.83799       -0.66888
C         19.56391        3.00679        0.49763
C         25.66430       -3.59596       -0.61137
C         19.97646        4.15274       -0.39987
C         26.83282       -2.75676       -0.10320
C         19.46285        5.49230        0.06201
C         19.83759        5.84609        1.49878
C         28.10789       -3.59914       -0.15619
C         19.98695        7.35535        1.70941
C         29.34207       -2.75617        0.15034
C         21.16351        7.88937        0.87226
C         20.75502        8.56247       -0.47294
C         30.60499       -3.61691        0.06372
C         21.95506        8.77263       -1.42327
C         22.42632       10.21072       -1.39816
C         31.85630       -2.76494        0.22781
C         22.95550       10.68300        0.00000
C         22.95550       11.68300        0.00000
H          9.03753       -6.64925       -2.88219
H          8.59537       -4.42926       -1.32402
H          9.56692       -8.37681        2.42229
H          8.78235       -5.02258        1.92813
H         11.93075       -7.34753       -2.05294
H          5.49738       -9.23308        1.82455
H          4.32044       -9.27443       -1.57929
H          6.96890       -1.44150       -2.39592
H          8.65348       -7.27588       -0.47120
H          7.69971       -7.34951        1.06117
H          6.44265       -3.76007        2.76024
H          7.73310       -9.30300        0.00000
H          6.82492        1.11889        2.02200
H          7.75020        2.44764        0.08647
H          8.22883        0.76493       -1.84235
H          4.08428      -11.17409        0.61769
H         11.12487       -6.38271        1.68937
H          8.72207       -0.92255       -0.20883
H          9.99890       -2.14193       -0.64188
H          6.18492       -4.16387       -0.89175
H          4.56380       -4.10692       -1.71406
H         12.55743       -8.70999        1.06713
H         11.33723       -3.49996        4.02915
H          5.10917      -12.37934       -1.46779
H         13.42920       -6.43700        0.00000
H          2.89922       -8.96864        1.52349
H         10.61280       -9.05235       -0.65018
H         13.42920       -4.19700        0.00000
H         10.15970        1.38893        0.54127
H         11.01313        0.85685        2.04343
H         10.59853      -10.51516        1.48017
H          4.49487        0.93735       -1.63284
H         11.94131       -3.58570       -2.17922
H         10.94961       -5.08302       -2.02205
H          5.29064        3.69298        0.78166
H          2.29959      -13.15705       -0.65024
H          1.10462      -10.53119        0.71879
H          2.03113       -9.83621       -0.64657
H          9.91949       -1.34864        2.00072
H         14.10659       -9.36799       -1.09168
H          3.42510       -5.98608       -0.26348
H         15.89679       -7.53830       -0.38923
H          0.96620       -6.31132       -0.71604
H          5.46574        1.22369       -0.43797
H          4.76900       -1.19700        0.00000
H          3.69360       -1.66059       -0.28165
H         10.82877        3.30159       -1.25269
H         11.79038       -3.19463        1.76175
H         12.24226       -1.45582        2.11415
H          6.95867      -11.77758        0.79431
H          7.73310      -12.30300        0.00000
H          8.74166      -11.78146        0.45577
H         15.97959       -1.54182       -2.44766
H         11.48114       -1.06848       -2.51378
H         -0.54454       -9.10624        0.30641
H         14.81060       -5.37771        2.10818
H         16.00528       -3.20016        1.78952
H         17.53653       -4.05352        2.08355
H         13.31748        1.17194       -1.82206
H         17.07458       -5.36837       -0.20031
H         15.72969       -4.21525       -0.43045
H         18.67248       -7.04679        0.95757
H         17.33728       -2.33323       -0.07674
H         17.55556       -3.22101       -1.62255
H         14.06191       -0.64466        0.86625
H         14.81694       -0.28863       -0.69364
H         19.44154       -4.38999       -0.97540
H         19.15406       -4.23693        0.76615
H         16.28864       -0.46947        1.37591
H         15.39448        0.89382        2.11950
H         19.61967       -1.87842        0.84662
H         19.97220       -1.83069       -0.93053
H         16.28101        2.41749        0.28372
H         17.49601        1.51042        1.29591
H         21.38085       -3.72661        1.07517
H         21.67136       -3.52141       -0.68502
H         16.61274        0.72717       -1.56703
H         17.71217       -0.21100       -0.49397
H         22.06452       -1.47727        1.60308
H         22.35363       -1.05250       -0.12580
H         18.96867        0.85844       -2.13194
H         18.29540        2.46665       -1.81261
H         24.45801       -1.67653        1.16508
H         23.78521       -3.32980        1.39901
H         20.71564        1.72009       -0.77777
H         19.73075        0.81033        0.39756
H         24.43828       -1.92954       -1.30414
H         23.66393       -3.53576       -1.18318
H         20.21742        3.01797        1.39756
H         18.53554        3.19568        0.83239
H         25.53716       -4.50937        0.01073
H         25.89808       -3.91506       -1.65200
H         19.60116        4.05477       -1.43648
H         21.08991        4.15349       -0.46218
H         26.93968       -1.86945       -0.76518
H         26.65927       -2.41244        0.93912
H         19.98776        6.09292       -0.66216
H         18.36645        5.62191       -0.08167
H         20.82263        5.39787        1.75460
H         19.08891        5.41329        2.19824
H         28.22533       -4.01583       -1.18162
H         28.02228       -4.44414        0.56339
H         20.25984        7.45688        2.78365
H         19.05933        7.94840        1.55037
H         29.40192       -1.93986       -0.60333
H         29.25935       -2.30557        1.16390
H         21.70273        8.56583        1.53775
H         21.89481        7.07018        0.69144
H         20.17315        9.49409       -0.30110
H         20.03483        7.98804       -1.06058
H         30.57644       -4.39883        0.85422
H         30.65309       -4.11656       -0.92890
H         22.76776        8.03245       -1.25931
H         21.60124        8.62362       -2.46978
H         21.52346       10.78909       -1.73390
H         23.20519       10.37506       -2.18233
H         32.75535       -3.41235        0.16332
H         31.90570       -2.00799       -0.58474
H         31.84871       -2.24844        1.21029
H         23.96908       10.19734        0.08857
H         22.34623       10.26871        0.83482
H         23.45820       11.93099        0.98686
H         22.95550       12.30300        0.00000
H         21.85883       11.99260        0.05441
